[
    {
        "role": "user",
        "content": "Name three natural elements that are commonly found in the Earth's crust and have a melting point below 1000 degrees Celsius. Additionally, for each element, provide its atomic number and its position in the periodic table."
    },
    {
        "role": "assistant",
        "content": "Certainly! Here are three natural elements commonly found in the Earth's crust with a melting point below 1000 degrees Celsius, along with their atomic numbers and positions in the periodic table:\n\n1. **Aluminum (Al)**\n   - **Melting Point:** Approximately 660.3 degrees Celsius\n   - **Atomic Number:** 13\n   - **Position in the Periodic Table:** Group 13, Period 3\n\n2. **Sodium (Na)**\n   - **Melting Point:** Approximately 97.8 degrees Celsius\n   - **Atomic Number:** 11\n   - **Position in the Periodic Table:** Group 1, Period 3\n\n3. **Potassium (K)**\n   - **Melting Point:** Approximately 63.5 degrees Celsius\n   - **Atomic Number:** 19\n   - **Position in the Periodic Table:** Group 1, Period 4\n\nThese elements are abundant in the Earth's crust and have relatively low melting points compared to many other metals and elements."
    }
]